<?xml version="1.0" encoding="UTF-8"?>

<!-- generated on 2024-10-18 12:50:12 by Eclipse SUMO GUI Version 1.20.0
<configuration xmlns:xsi="http://www.w3.org/2001/XMLSchema-instance" xsi:noNamespaceSchemaLocation="http://sumo.dlr.de/xsd/sumoConfiguration.xsd">

    <input>
        <net-file value="./simulation/bordeaux/bordeaux.net.xml"/>
        <route-files value="./simulation/bordeaux/bordeaux.fast.xml"/>
        <additional-files value="./simulation/bordeaux/bordeaux.add.xml"/>
    </input>

    <output>
        <tripinfo-output value="./simulation/bordeaux/bordeaux.stats.xml"/>
    </output>

    <time>
        <step-length value="0.5"/>
    </time>

    <report>
        <no-warnings value="true"/>
    </report>

    <traci_server>
        <remote-port value="52836"/>
    </traci_server>

</configuration>
-->

<detector xmlns:xsi="http://www.w3.org/2001/XMLSchema-instance" xsi:noNamespaceSchemaLocation="http://sumo.dlr.de/xsd/det_e1_file.xsd">
    <interval begin="0.00" end="300.00" id="BUSEW" nVehContrib="1" flow="12.00" occupancy="0.29" speed="13.69" harmonicMeanSpeed="13.69" length="12.00" nVehEntered="1"/>
    <interval begin="0.00" end="300.00" id="BUSNS" nVehContrib="1" flow="12.00" occupancy="0.31" speed="13.11" harmonicMeanSpeed="13.11" length="12.00" nVehEntered="1"/>
    <interval begin="0.00" end="300.00" id="BUSSN" nVehContrib="1" flow="12.00" occupancy="0.44" speed="9.03" harmonicMeanSpeed="9.03" length="12.00" nVehEntered="1"/>
    <interval begin="0.00" end="300.00" id="BUSWE" nVehContrib="1" flow="12.00" occupancy="0.32" speed="12.68" harmonicMeanSpeed="12.68" length="12.00" nVehEntered="1"/>
   <interval begin="0.00" end="300.00" id="cars_e_in" meanTravelTime="0.74" meanOverlapTravelTime="1.14" meanSpeed="13.27" meanHaltsPerVehicle="0.00" meanTimeLoss="0.05" vehicleSum="27" meanSpeedWithin="-1.00" meanHaltsPerVehicleWithin="-1.00" meanDurationWithin="-1.00" vehicleSumWithin="0" meanIntervalSpeedWithin="-1.00" meanIntervalHaltsPerVehicleWithin="-1.00" meanIntervalDurationWithin="-1.00" meanTimeLossWithin="-1.00"/>
   <interval begin="0.00" end="300.00" id="cars_e_out" meanTravelTime="0.72" meanOverlapTravelTime="1.13" meanSpeed="13.37" meanHaltsPerVehicle="0.00" meanTimeLoss="0.04" vehicleSum="16" meanSpeedWithin="-1.00" meanHaltsPerVehicleWithin="-1.00" meanDurationWithin="-1.00" vehicleSumWithin="0" meanIntervalSpeedWithin="-1.00" meanIntervalHaltsPerVehicleWithin="-1.00" meanIntervalDurationWithin="-1.00" meanTimeLossWithin="-1.00"/>
   <interval begin="0.00" end="300.00" id="cars_n_in" meanTravelTime="0.61" meanOverlapTravelTime="1.00" meanSpeed="13.55" meanHaltsPerVehicle="0.00" meanTimeLoss="0.04" vehicleSum="60" meanSpeedWithin="10.82" meanHaltsPerVehicleWithin="0.00" meanDurationWithin="0.84" vehicleSumWithin="1" meanIntervalSpeedWithin="10.82" meanIntervalHaltsPerVehicleWithin="0.00" meanIntervalDurationWithin="0.84" meanTimeLossWithin="0.00"/>
   <interval begin="0.00" end="300.00" id="cars_n_out" meanTravelTime="0.66" meanOverlapTravelTime="1.05" meanSpeed="12.88" meanHaltsPerVehicle="0.00" meanTimeLoss="0.07" vehicleSum="26" meanSpeedWithin="-1.00" meanHaltsPerVehicleWithin="-1.00" meanDurationWithin="-1.00" vehicleSumWithin="0" meanIntervalSpeedWithin="-1.00" meanIntervalHaltsPerVehicleWithin="-1.00" meanIntervalDurationWithin="-1.00" meanTimeLossWithin="-1.00"/>
   <interval begin="0.00" end="300.00" id="cars_s_in" meanTravelTime="0.65" meanOverlapTravelTime="1.04" meanSpeed="13.56" meanHaltsPerVehicle="0.00" meanTimeLoss="0.03" vehicleSum="39" meanSpeedWithin="-1.00" meanHaltsPerVehicleWithin="-1.00" meanDurationWithin="-1.00" vehicleSumWithin="0" meanIntervalSpeedWithin="-1.00" meanIntervalHaltsPerVehicleWithin="-1.00" meanIntervalDurationWithin="-1.00" meanTimeLossWithin="-1.00"/>
   <interval begin="0.00" end="300.00" id="cars_s_out" meanTravelTime="0.61" meanOverlapTravelTime="0.98" meanSpeed="13.88" meanHaltsPerVehicle="0.00" meanTimeLoss="0.04" vehicleSum="12" meanSpeedWithin="-1.00" meanHaltsPerVehicleWithin="-1.00" meanDurationWithin="-1.00" vehicleSumWithin="0" meanIntervalSpeedWithin="-1.00" meanIntervalHaltsPerVehicleWithin="-1.00" meanIntervalDurationWithin="-1.00" meanTimeLossWithin="-1.00"/>
   <interval begin="0.00" end="300.00" id="cars_w_in" meanTravelTime="0.71" meanOverlapTravelTime="1.10" meanSpeed="13.61" meanHaltsPerVehicle="0.00" meanTimeLoss="0.03" vehicleSum="24" meanSpeedWithin="-1.00" meanHaltsPerVehicleWithin="-1.00" meanDurationWithin="-1.00" vehicleSumWithin="0" meanIntervalSpeedWithin="-1.00" meanIntervalHaltsPerVehicleWithin="-1.00" meanIntervalDurationWithin="-1.00" meanTimeLossWithin="-1.00"/>
   <interval begin="0.00" end="300.00" id="cars_w_out" meanTravelTime="0.71" meanOverlapTravelTime="1.13" meanSpeed="12.98" meanHaltsPerVehicle="0.00" meanTimeLoss="0.09" vehicleSum="18" meanSpeedWithin="-1.00" meanHaltsPerVehicleWithin="-1.00" meanDurationWithin="-1.00" vehicleSumWithin="0" meanIntervalSpeedWithin="-1.00" meanIntervalHaltsPerVehicleWithin="-1.00" meanIntervalDurationWithin="-1.00" meanTimeLossWithin="-1.00"/>
   <interval begin="0.00" end="300.00" id="cbikes_e_in" meanTravelTime="33.03" meanOverlapTravelTime="33.25" meanSpeed="5.43" meanHaltsPerVehicle="0.00" meanTimeLoss="1.29" vehicleSum="13" meanSpeedWithin="5.31" meanHaltsPerVehicleWithin="0.00" meanDurationWithin="17.46" vehicleSumWithin="1" meanIntervalSpeedWithin="5.31" meanIntervalHaltsPerVehicleWithin="0.00" meanIntervalDurationWithin="17.46" meanTimeLossWithin="0.55"/>
   <interval begin="0.00" end="300.00" id="cbikes_e_out" meanTravelTime="30.64" meanOverlapTravelTime="30.85" meanSpeed="5.54" meanHaltsPerVehicle="0.00" meanTimeLoss="1.80" vehicleSum="8" meanSpeedWithin="-1.00" meanHaltsPerVehicleWithin="-1.00" meanDurationWithin="-1.00" vehicleSumWithin="0" meanIntervalSpeedWithin="-1.00" meanIntervalHaltsPerVehicleWithin="-1.00" meanIntervalDurationWithin="-1.00" meanTimeLossWithin="-1.00"/>
   <interval begin="0.00" end="300.00" id="cbikes_n_in" meanTravelTime="29.12" meanOverlapTravelTime="29.34" meanSpeed="5.06" meanHaltsPerVehicle="0.00" meanTimeLoss="1.79" vehicleSum="19" meanSpeedWithin="4.78" meanHaltsPerVehicleWithin="0.00" meanDurationWithin="21.16" vehicleSumWithin="3" meanIntervalSpeedWithin="4.78" meanIntervalHaltsPerVehicleWithin="0.00" meanIntervalDurationWithin="21.16" meanTimeLossWithin="1.26"/>
   <interval begin="0.00" end="300.00" id="cbikes_n_out" meanTravelTime="33.94" meanOverlapTravelTime="34.17" meanSpeed="5.34" meanHaltsPerVehicle="0.00" meanTimeLoss="1.43" vehicleSum="9" meanSpeedWithin="-1.00" meanHaltsPerVehicleWithin="-1.00" meanDurationWithin="-1.00" vehicleSumWithin="0" meanIntervalSpeedWithin="-1.00" meanIntervalHaltsPerVehicleWithin="-1.00" meanIntervalDurationWithin="-1.00" meanTimeLossWithin="-1.00"/>
   <interval begin="0.00" end="300.00" id="cbikes_s_in" meanTravelTime="27.68" meanOverlapTravelTime="27.90" meanSpeed="5.37" meanHaltsPerVehicle="0.00" meanTimeLoss="1.04" vehicleSum="16" meanSpeedWithin="5.75" meanHaltsPerVehicleWithin="0.00" meanDurationWithin="15.98" vehicleSumWithin="1" meanIntervalSpeedWithin="5.75" meanIntervalHaltsPerVehicleWithin="0.00" meanIntervalDurationWithin="15.98" meanTimeLossWithin="0.65"/>
   <interval begin="0.00" end="300.00" id="cbikes_s_out" meanTravelTime="27.92" meanOverlapTravelTime="28.15" meanSpeed="5.36" meanHaltsPerVehicle="0.00" meanTimeLoss="0.85" vehicleSum="8" meanSpeedWithin="-1.00" meanHaltsPerVehicleWithin="-1.00" meanDurationWithin="-1.00" vehicleSumWithin="0" meanIntervalSpeedWithin="-1.00" meanIntervalHaltsPerVehicleWithin="-1.00" meanIntervalDurationWithin="-1.00" meanTimeLossWithin="-1.00"/>
   <interval begin="0.00" end="300.00" id="cbikes_w_in" meanTravelTime="28.74" meanOverlapTravelTime="28.95" meanSpeed="5.15" meanHaltsPerVehicle="0.00" meanTimeLoss="2.90" vehicleSum="17" meanSpeedWithin="4.79" meanHaltsPerVehicleWithin="0.00" meanDurationWithin="15.19" vehicleSumWithin="2" meanIntervalSpeedWithin="4.79" meanIntervalHaltsPerVehicleWithin="0.00" meanIntervalDurationWithin="15.19" meanTimeLossWithin="2.12"/>
   <interval begin="0.00" end="300.00" id="cbikes_w_out" meanTravelTime="1.80" meanOverlapTravelTime="2.03" meanSpeed="5.11" meanHaltsPerVehicle="0.00" meanTimeLoss="0.15" vehicleSum="8" meanSpeedWithin="-1.00" meanHaltsPerVehicleWithin="-1.00" meanDurationWithin="-1.00" vehicleSumWithin="0" meanIntervalSpeedWithin="-1.00" meanIntervalHaltsPerVehicleWithin="-1.00" meanIntervalDurationWithin="-1.00" meanTimeLossWithin="-1.00"/>
   <interval begin="0.00" end="300.00" id="e0_10" meanTravelTime="10.59" meanOverlapTravelTime="11.29" meanSpeed="10.12" meanHaltsPerVehicle="0.06" meanTimeLoss="10.46" vehicleSum="17" meanSpeedWithin="5.92" meanHaltsPerVehicleWithin="0.50" meanDurationWithin="102.70" vehicleSumWithin="4" meanIntervalSpeedWithin="5.92" meanIntervalHaltsPerVehicleWithin="0.50" meanIntervalDurationWithin="102.70" meanTimeLossWithin="91.98"/>
   <interval begin="0.00" end="300.00" id="e0_11" meanTravelTime="19.59" meanOverlapTravelTime="20.23" meanSpeed="8.19" meanHaltsPerVehicle="0.12" meanTimeLoss="19.39" vehicleSum="8" meanSpeedWithin="-1.00" meanHaltsPerVehicleWithin="-1.00" meanDurationWithin="-1.00" vehicleSumWithin="0" meanIntervalSpeedWithin="-1.00" meanIntervalHaltsPerVehicleWithin="-1.00" meanIntervalDurationWithin="-1.00" meanTimeLossWithin="-1.00"/>
   <interval begin="0.00" end="300.00" id="e10_06" meanTravelTime="0.85" meanOverlapTravelTime="38.71" meanSpeed="4.43" meanHaltsPerVehicle="0.17" meanTimeLoss="37.95" vehicleSum="6" meanSpeedWithin="0.45" meanHaltsPerVehicleWithin="1.00" meanDurationWithin="25.15" vehicleSumWithin="1" meanIntervalSpeedWithin="0.45" meanIntervalHaltsPerVehicleWithin="1.00" meanIntervalDurationWithin="25.15" meanTimeLossWithin="24.10"/>
   <interval begin="0.00" end="300.00" id="e12" meanTravelTime="1.29" meanOverlapTravelTime="1.71" meanSpeed="12.99" meanHaltsPerVehicle="0.00" meanTimeLoss="0.20" vehicleSum="6" meanSpeedWithin="-1.00" meanHaltsPerVehicleWithin="-1.00" meanDurationWithin="-1.00" vehicleSumWithin="0" meanIntervalSpeedWithin="-1.00" meanIntervalHaltsPerVehicleWithin="-1.00" meanIntervalDurationWithin="-1.00" meanTimeLossWithin="-1.00"/>
   <interval begin="0.00" end="300.00" id="e14" meanTravelTime="0.71" meanOverlapTravelTime="1.12" meanSpeed="13.55" meanHaltsPerVehicle="0.00" meanTimeLoss="0.02" vehicleSum="15" meanSpeedWithin="5.61" meanHaltsPerVehicleWithin="1.00" meanDurationWithin="29.79" vehicleSumWithin="2" meanIntervalSpeedWithin="5.61" meanIntervalHaltsPerVehicleWithin="1.00" meanIntervalDurationWithin="29.79" meanTimeLossWithin="20.15"/>
   <interval begin="0.00" end="300.00" id="e15" meanTravelTime="0.65" meanOverlapTravelTime="1.02" meanSpeed="13.90" meanHaltsPerVehicle="0.00" meanTimeLoss="0.03" vehicleSum="9" meanSpeedWithin="-1.00" meanHaltsPerVehicleWithin="-1.00" meanDurationWithin="-1.00" vehicleSumWithin="0" meanIntervalSpeedWithin="-1.00" meanIntervalHaltsPerVehicleWithin="-1.00" meanIntervalDurationWithin="-1.00" meanTimeLossWithin="-1.00"/>
   <interval begin="0.00" end="300.00" id="e16" meanTravelTime="14.33" meanOverlapTravelTime="14.72" meanSpeed="4.54" meanHaltsPerVehicle="0.29" meanTimeLoss="6.48" vehicleSum="7" meanSpeedWithin="1.48" meanHaltsPerVehicleWithin="0.83" meanDurationWithin="59.62" vehicleSumWithin="6" meanIntervalSpeedWithin="1.48" meanIntervalHaltsPerVehicleWithin="0.83" meanIntervalDurationWithin="59.62" meanTimeLossWithin="52.23"/>
   <interval begin="0.00" end="300.00" id="e17" meanTravelTime="0.46" meanOverlapTravelTime="0.87" meanSpeed="13.15" meanHaltsPerVehicle="0.00" meanTimeLoss="0.04" vehicleSum="21" meanSpeedWithin="-1.00" meanHaltsPerVehicleWithin="-1.00" meanDurationWithin="-1.00" vehicleSumWithin="0" meanIntervalSpeedWithin="-1.00" meanIntervalHaltsPerVehicleWithin="-1.00" meanIntervalDurationWithin="-1.00" meanTimeLossWithin="-1.00"/>
   <interval begin="0.00" end="300.00" id="e18" meanTravelTime="1.11" meanOverlapTravelTime="1.36" meanSpeed="5.63" meanHaltsPerVehicle="0.00" meanTimeLoss="0.17" vehicleSum="15" meanSpeedWithin="-1.00" meanHaltsPerVehicleWithin="-1.00" meanDurationWithin="-1.00" vehicleSumWithin="0" meanIntervalSpeedWithin="-1.00" meanIntervalHaltsPerVehicleWithin="-1.00" meanIntervalDurationWithin="-1.00" meanTimeLossWithin="-1.00"/>
   <interval begin="0.00" end="300.00" id="e20" meanTravelTime="0.75" meanOverlapTravelTime="1.12" meanSpeed="4.98" meanHaltsPerVehicle="0.06" meanTimeLoss="0.26" vehicleSum="18" meanSpeedWithin="0.70" meanHaltsPerVehicleWithin="1.00" meanDurationWithin="6.70" vehicleSumWithin="1" meanIntervalSpeedWithin="0.70" meanIntervalHaltsPerVehicleWithin="1.00" meanIntervalDurationWithin="6.70" meanTimeLossWithin="5.58"/>
   <interval begin="0.00" end="300.00" id="e22" meanTravelTime="0.81" meanOverlapTravelTime="1.13" meanSpeed="5.26" meanHaltsPerVehicle="0.00" meanTimeLoss="0.24" vehicleSum="10" meanSpeedWithin="0.07" meanHaltsPerVehicleWithin="1.00" meanDurationWithin="39.79" vehicleSumWithin="3" meanIntervalSpeedWithin="0.07" meanIntervalHaltsPerVehicleWithin="1.00" meanIntervalDurationWithin="39.79" meanTimeLossWithin="38.72"/>
   <interval begin="0.00" end="300.00" id="e24" meanTravelTime="1.16" meanOverlapTravelTime="1.56" meanSpeed="13.61" meanHaltsPerVehicle="0.00" meanTimeLoss="0.04" vehicleSum="15" meanSpeedWithin="-1.00" meanHaltsPerVehicleWithin="-1.00" meanDurationWithin="-1.00" vehicleSumWithin="0" meanIntervalSpeedWithin="-1.00" meanIntervalHaltsPerVehicleWithin="-1.00" meanIntervalDurationWithin="-1.00" meanTimeLossWithin="-1.00"/>
   <interval begin="0.00" end="300.00" id="e2_04" meanTravelTime="0.56" meanOverlapTravelTime="13.78" meanSpeed="8.46" meanHaltsPerVehicle="0.06" meanTimeLoss="13.03" vehicleSum="16" meanSpeedWithin="-1.00" meanHaltsPerVehicleWithin="-1.00" meanDurationWithin="-1.00" vehicleSumWithin="0" meanIntervalSpeedWithin="-1.00" meanIntervalHaltsPerVehicleWithin="-1.00" meanIntervalDurationWithin="-1.00" meanTimeLossWithin="-1.00"/>
   <interval begin="0.00" end="300.00" id="e2_05" meanTravelTime="0.54" meanOverlapTravelTime="15.22" meanSpeed="8.54" meanHaltsPerVehicle="0.08" meanTimeLoss="14.56" vehicleSum="13" meanSpeedWithin="-1.00" meanHaltsPerVehicleWithin="-1.00" meanDurationWithin="-1.00" vehicleSumWithin="0" meanIntervalSpeedWithin="-1.00" meanIntervalHaltsPerVehicleWithin="-1.00" meanIntervalDurationWithin="-1.00" meanTimeLossWithin="-1.00"/>
   <interval begin="0.00" end="300.00" id="e4_07" meanTravelTime="-1.00" meanOverlapTravelTime="-1.00" meanSpeed="-1.00" meanHaltsPerVehicle="-1.00" meanTimeLoss="-1.00" vehicleSum="0" meanSpeedWithin="1.51" meanHaltsPerVehicleWithin="1.00" meanDurationWithin="27.94" vehicleSumWithin="3" meanIntervalSpeedWithin="1.51" meanIntervalHaltsPerVehicleWithin="1.00" meanIntervalDurationWithin="27.94" meanTimeLossWithin="25.49"/>
   <interval begin="0.00" end="300.00" id="e4_08" meanTravelTime="-1.00" meanOverlapTravelTime="-1.00" meanSpeed="-1.00" meanHaltsPerVehicle="-1.00" meanTimeLoss="-1.00" vehicleSum="0" meanSpeedWithin="2.25" meanHaltsPerVehicleWithin="1.00" meanDurationWithin="22.59" vehicleSumWithin="2" meanIntervalSpeedWithin="2.25" meanIntervalHaltsPerVehicleWithin="1.00" meanIntervalDurationWithin="22.59" meanTimeLossWithin="19.92"/>
   <interval begin="0.00" end="300.00" id="e4_09" meanTravelTime="-1.00" meanOverlapTravelTime="-1.00" meanSpeed="-1.00" meanHaltsPerVehicle="-1.00" meanTimeLoss="-1.00" vehicleSum="0" meanSpeedWithin="-1.00" meanHaltsPerVehicleWithin="-1.00" meanDurationWithin="-1.00" vehicleSumWithin="0" meanIntervalSpeedWithin="-1.00" meanIntervalHaltsPerVehicleWithin="-1.00" meanIntervalDurationWithin="-1.00" meanTimeLossWithin="-1.00"/>
   <interval begin="0.00" end="300.00" id="e5" meanTravelTime="5.82" meanOverlapTravelTime="9.25" meanSpeed="9.74" meanHaltsPerVehicle="0.23" meanTimeLoss="7.71" vehicleSum="30" meanSpeedWithin="2.61" meanHaltsPerVehicleWithin="1.00" meanDurationWithin="29.81" vehicleSumWithin="1" meanIntervalSpeedWithin="2.61" meanIntervalHaltsPerVehicleWithin="1.00" meanIntervalDurationWithin="29.81" meanTimeLossWithin="24.61"/>
   <interval begin="0.00" end="300.00" id="e6_01" meanTravelTime="11.34" meanOverlapTravelTime="36.85" meanSpeed="6.04" meanHaltsPerVehicle="0.50" meanTimeLoss="35.46" vehicleSum="4" meanSpeedWithin="0.69" meanHaltsPerVehicleWithin="1.00" meanDurationWithin="29.62" vehicleSumWithin="1" meanIntervalSpeedWithin="0.69" meanIntervalHaltsPerVehicleWithin="1.00" meanIntervalDurationWithin="29.62" meanTimeLossWithin="28.02"/>
   <interval begin="0.00" end="300.00" id="e6_02" meanTravelTime="29.08" meanOverlapTravelTime="49.98" meanSpeed="5.35" meanHaltsPerVehicle="0.43" meanTimeLoss="48.38" vehicleSum="7" meanSpeedWithin="0.52" meanHaltsPerVehicleWithin="1.00" meanDurationWithin="30.87" vehicleSumWithin="5" meanIntervalSpeedWithin="0.52" meanIntervalHaltsPerVehicleWithin="1.00" meanIntervalDurationWithin="30.87" meanTimeLossWithin="29.56"/>
   <interval begin="0.00" end="300.00" id="e6_03" meanTravelTime="22.45" meanOverlapTravelTime="38.21" meanSpeed="5.51" meanHaltsPerVehicle="0.38" meanTimeLoss="36.63" vehicleSum="8" meanSpeedWithin="0.87" meanHaltsPerVehicleWithin="1.00" meanDurationWithin="22.83" vehicleSumWithin="3" meanIntervalSpeedWithin="0.87" meanIntervalHaltsPerVehicleWithin="1.00" meanIntervalDurationWithin="22.83" meanTimeLossWithin="21.45"/>
   <interval begin="0.00" end="300.00" id="e7" meanTravelTime="1.20" meanOverlapTravelTime="1.58" meanSpeed="13.18" meanHaltsPerVehicle="0.00" meanTimeLoss="0.05" vehicleSum="6" meanSpeedWithin="-1.00" meanHaltsPerVehicleWithin="-1.00" meanDurationWithin="-1.00" vehicleSumWithin="0" meanIntervalSpeedWithin="-1.00" meanIntervalHaltsPerVehicleWithin="-1.00" meanIntervalDurationWithin="-1.00" meanTimeLossWithin="-1.00"/>
   <interval begin="0.00" end="300.00" id="e8_12" meanTravelTime="0.50" meanOverlapTravelTime="1.05" meanSpeed="11.23" meanHaltsPerVehicle="0.00" meanTimeLoss="0.31" vehicleSum="4" meanSpeedWithin="0.07" meanHaltsPerVehicleWithin="1.33" meanDurationWithin="109.22" vehicleSumWithin="3" meanIntervalSpeedWithin="0.07" meanIntervalHaltsPerVehicleWithin="1.33" meanIntervalDurationWithin="109.22" meanTimeLossWithin="108.27"/>
   <interval begin="0.00" end="300.00" id="mac0" meanTravelTime="0.45" meanOverlapTravelTime="0.82" meanSpeed="13.36" meanHaltsPerVehicle="0.00" meanTimeLoss="0.01" vehicleSum="5" meanSpeedWithin="3.83" meanHaltsPerVehicleWithin="1.00" meanDurationWithin="48.81" vehicleSumWithin="8" meanIntervalSpeedWithin="3.83" meanIntervalHaltsPerVehicleWithin="1.00" meanIntervalDurationWithin="48.81" meanTimeLossWithin="39.09"/>
    <interval begin="300.00" end="600.00" id="BUSEW" nVehContrib="0" flow="0.00" occupancy="0.00" speed="-1.00" harmonicMeanSpeed="-1.00" length="-1.00" nVehEntered="0"/>
    <interval begin="300.00" end="600.00" id="BUSNS" nVehContrib="0" flow="0.00" occupancy="0.00" speed="-1.00" harmonicMeanSpeed="-1.00" length="-1.00" nVehEntered="0"/>
    <interval begin="300.00" end="600.00" id="BUSSN" nVehContrib="0" flow="0.00" occupancy="0.00" speed="-1.00" harmonicMeanSpeed="-1.00" length="-1.00" nVehEntered="0"/>
    <interval begin="300.00" end="600.00" id="BUSWE" nVehContrib="0" flow="0.00" occupancy="0.00" speed="-1.00" harmonicMeanSpeed="-1.00" length="-1.00" nVehEntered="0"/>
   <interval begin="300.00" end="600.00" id="cars_e_in" meanTravelTime="0.70" meanOverlapTravelTime="1.06" meanSpeed="14.12" meanHaltsPerVehicle="0.00" meanTimeLoss="0.02" vehicleSum="33" meanSpeedWithin="-1.00" meanHaltsPerVehicleWithin="-1.00" meanDurationWithin="-1.00" vehicleSumWithin="0" meanIntervalSpeedWithin="-1.00" meanIntervalHaltsPerVehicleWithin="-1.00" meanIntervalDurationWithin="-1.00" meanTimeLossWithin="-1.00"/>
   <interval begin="300.00" end="600.00" id="cars_e_out" meanTravelTime="0.78" meanOverlapTravelTime="1.19" meanSpeed="12.38" meanHaltsPerVehicle="0.00" meanTimeLoss="0.12" vehicleSum="46" meanSpeedWithin="-1.00" meanHaltsPerVehicleWithin="-1.00" meanDurationWithin="-1.00" vehicleSumWithin="0" meanIntervalSpeedWithin="-1.00" meanIntervalHaltsPerVehicleWithin="-1.00" meanIntervalDurationWithin="-1.00" meanTimeLossWithin="-1.00"/>
   <interval begin="300.00" end="600.00" id="cars_n_in" meanTravelTime="1.22" meanOverlapTravelTime="1.72" meanSpeed="12.13" meanHaltsPerVehicle="0.05" meanTimeLoss="0.76" vehicleSum="79" meanSpeedWithin="-1.00" meanHaltsPerVehicleWithin="-1.00" meanDurationWithin="-1.00" vehicleSumWithin="0" meanIntervalSpeedWithin="-1.00" meanIntervalHaltsPerVehicleWithin="-1.00" meanIntervalDurationWithin="-1.00" meanTimeLossWithin="-1.00"/>
   <interval begin="300.00" end="600.00" id="cars_n_out" meanTravelTime="0.69" meanOverlapTravelTime="1.11" meanSpeed="12.24" meanHaltsPerVehicle="0.00" meanTimeLoss="0.12" vehicleSum="56" meanSpeedWithin="-1.00" meanHaltsPerVehicleWithin="-1.00" meanDurationWithin="-1.00" vehicleSumWithin="0" meanIntervalSpeedWithin="-1.00" meanIntervalHaltsPerVehicleWithin="-1.00" meanIntervalDurationWithin="-1.00" meanTimeLossWithin="-1.00"/>
   <interval begin="300.00" end="600.00" id="cars_s_in" meanTravelTime="0.65" meanOverlapTravelTime="1.02" meanSpeed="13.59" meanHaltsPerVehicle="0.00" meanTimeLoss="0.02" vehicleSum="54" meanSpeedWithin="-1.00" meanHaltsPerVehicleWithin="-1.00" meanDurationWithin="-1.00" vehicleSumWithin="0" meanIntervalSpeedWithin="-1.00" meanIntervalHaltsPerVehicleWithin="-1.00" meanIntervalDurationWithin="-1.00" meanTimeLossWithin="-1.00"/>
   <interval begin="300.00" end="600.00" id="cars_s_out" meanTravelTime="0.66" meanOverlapTravelTime="1.06" meanSpeed="12.77" meanHaltsPerVehicle="0.00" meanTimeLoss="0.09" vehicleSum="70" meanSpeedWithin="-1.00" meanHaltsPerVehicleWithin="-1.00" meanDurationWithin="-1.00" vehicleSumWithin="0" meanIntervalSpeedWithin="-1.00" meanIntervalHaltsPerVehicleWithin="-1.00" meanIntervalDurationWithin="-1.00" meanTimeLossWithin="-1.00"/>
   <interval begin="300.00" end="600.00" id="cars_w_in" meanTravelTime="0.70" meanOverlapTravelTime="1.07" meanSpeed="13.86" meanHaltsPerVehicle="0.00" meanTimeLoss="0.03" vehicleSum="36" meanSpeedWithin="-1.00" meanHaltsPerVehicleWithin="-1.00" meanDurationWithin="-1.00" vehicleSumWithin="0" meanIntervalSpeedWithin="-1.00" meanIntervalHaltsPerVehicleWithin="-1.00" meanIntervalDurationWithin="-1.00" meanTimeLossWithin="-1.00"/>
   <interval begin="300.00" end="600.00" id="cars_w_out" meanTravelTime="0.70" meanOverlapTravelTime="1.09" meanSpeed="13.05" meanHaltsPerVehicle="0.00" meanTimeLoss="0.07" vehicleSum="50" meanSpeedWithin="-1.00" meanHaltsPerVehicleWithin="-1.00" meanDurationWithin="-1.00" vehicleSumWithin="0" meanIntervalSpeedWithin="-1.00" meanIntervalHaltsPerVehicleWithin="-1.00" meanIntervalDurationWithin="-1.00" meanTimeLossWithin="-1.00"/>
   <interval begin="300.00" end="600.00" id="cbikes_e_in" meanTravelTime="33.02" meanOverlapTravelTime="33.23" meanSpeed="5.46" meanHaltsPerVehicle="0.00" meanTimeLoss="1.27" vehicleSum="13" meanSpeedWithin="4.48" meanHaltsPerVehicleWithin="0.00" meanDurationWithin="4.29" vehicleSumWithin="2" meanIntervalSpeedWithin="4.48" meanIntervalHaltsPerVehicleWithin="0.00" meanIntervalDurationWithin="4.29" meanTimeLossWithin="0.22"/>
   <interval begin="300.00" end="600.00" id="cbikes_e_out" meanTravelTime="31.83" meanOverlapTravelTime="32.05" meanSpeed="5.36" meanHaltsPerVehicle="0.00" meanTimeLoss="3.18" vehicleSum="14" meanSpeedWithin="-1.00" meanHaltsPerVehicleWithin="-1.00" meanDurationWithin="-1.00" vehicleSumWithin="0" meanIntervalSpeedWithin="-1.00" meanIntervalHaltsPerVehicleWithin="-1.00" meanIntervalDurationWithin="-1.00" meanTimeLossWithin="-1.00"/>
   <interval begin="300.00" end="600.00" id="cbikes_n_in" meanTravelTime="29.17" meanOverlapTravelTime="29.40" meanSpeed="5.07" meanHaltsPerVehicle="0.00" meanTimeLoss="2.18" vehicleSum="22" meanSpeedWithin="4.77" meanHaltsPerVehicleWithin="0.00" meanDurationWithin="15.43" vehicleSumWithin="3" meanIntervalSpeedWithin="4.77" meanIntervalHaltsPerVehicleWithin="0.00" meanIntervalDurationWithin="15.43" meanTimeLossWithin="1.55"/>
   <interval begin="300.00" end="600.00" id="cbikes_n_out" meanTravelTime="34.28" meanOverlapTravelTime="34.50" meanSpeed="5.23" meanHaltsPerVehicle="0.00" meanTimeLoss="2.19" vehicleSum="18" meanSpeedWithin="-1.00" meanHaltsPerVehicleWithin="-1.00" meanDurationWithin="-1.00" vehicleSumWithin="0" meanIntervalSpeedWithin="-1.00" meanIntervalHaltsPerVehicleWithin="-1.00" meanIntervalDurationWithin="-1.00" meanTimeLossWithin="-1.00"/>
   <interval begin="300.00" end="600.00" id="cbikes_s_in" meanTravelTime="27.42" meanOverlapTravelTime="27.64" meanSpeed="5.42" meanHaltsPerVehicle="0.00" meanTimeLoss="1.07" vehicleSum="22" meanSpeedWithin="5.40" meanHaltsPerVehicleWithin="0.00" meanDurationWithin="21.04" vehicleSumWithin="2" meanIntervalSpeedWithin="5.40" meanIntervalHaltsPerVehicleWithin="0.00" meanIntervalDurationWithin="21.04" meanTimeLossWithin="0.77"/>
   <interval begin="300.00" end="600.00" id="cbikes_s_out" meanTravelTime="33.04" meanOverlapTravelTime="33.30" meanSpeed="4.56" meanHaltsPerVehicle="0.00" meanTimeLoss="5.72" vehicleSum="15" meanSpeedWithin="-1.00" meanHaltsPerVehicleWithin="-1.00" meanDurationWithin="-1.00" vehicleSumWithin="0" meanIntervalSpeedWithin="-1.00" meanIntervalHaltsPerVehicleWithin="-1.00" meanIntervalDurationWithin="-1.00" meanTimeLossWithin="-1.00"/>
   <interval begin="300.00" end="600.00" id="cbikes_w_in" meanTravelTime="29.88" meanOverlapTravelTime="30.10" meanSpeed="4.99" meanHaltsPerVehicle="0.00" meanTimeLoss="3.25" vehicleSum="22" meanSpeedWithin="4.84" meanHaltsPerVehicleWithin="0.00" meanDurationWithin="18.68" vehicleSumWithin="1" meanIntervalSpeedWithin="4.84" meanIntervalHaltsPerVehicleWithin="0.00" meanIntervalDurationWithin="18.68" meanTimeLossWithin="2.53"/>
   <interval begin="300.00" end="600.00" id="cbikes_w_out" meanTravelTime="1.78" meanOverlapTravelTime="2.01" meanSpeed="5.22" meanHaltsPerVehicle="0.00" meanTimeLoss="0.16" vehicleSum="13" meanSpeedWithin="-1.00" meanHaltsPerVehicleWithin="-1.00" meanDurationWithin="-1.00" vehicleSumWithin="0" meanIntervalSpeedWithin="-1.00" meanIntervalHaltsPerVehicleWithin="-1.00" meanIntervalDurationWithin="-1.00" meanTimeLossWithin="-1.00"/>
   <interval begin="300.00" end="600.00" id="e0_10" meanTravelTime="5.38" meanOverlapTravelTime="6.04" meanSpeed="8.87" meanHaltsPerVehicle="0.03" meanTimeLoss="5.22" vehicleSum="39" meanSpeedWithin="0.63" meanHaltsPerVehicleWithin="1.00" meanDurationWithin="10.64" vehicleSumWithin="1" meanIntervalSpeedWithin="0.63" meanIntervalHaltsPerVehicleWithin="1.00" meanIntervalDurationWithin="10.64" meanTimeLossWithin="9.71"/>
   <interval begin="300.00" end="600.00" id="e0_11" meanTravelTime="5.55" meanOverlapTravelTime="6.06" meanSpeed="11.39" meanHaltsPerVehicle="0.03" meanTimeLoss="5.20" vehicleSum="34" meanSpeedWithin="-1.00" meanHaltsPerVehicleWithin="-1.00" meanDurationWithin="-1.00" vehicleSumWithin="0" meanIntervalSpeedWithin="-1.00" meanIntervalHaltsPerVehicleWithin="-1.00" meanIntervalDurationWithin="-1.00" meanTimeLossWithin="-1.00"/>
   <interval begin="300.00" end="600.00" id="e10_06" meanTravelTime="0.77" meanOverlapTravelTime="30.56" meanSpeed="5.78" meanHaltsPerVehicle="0.12" meanTimeLoss="29.89" vehicleSum="8" meanSpeedWithin="0.15" meanHaltsPerVehicleWithin="1.00" meanDurationWithin="69.43" vehicleSumWithin="1" meanIntervalSpeedWithin="0.15" meanIntervalHaltsPerVehicleWithin="1.00" meanIntervalDurationWithin="69.43" meanTimeLossWithin="68.21"/>
   <interval begin="300.00" end="600.00" id="e12" meanTravelTime="1.40" meanOverlapTravelTime="1.87" meanSpeed="12.19" meanHaltsPerVehicle="0.00" meanTimeLoss="0.41" vehicleSum="10" meanSpeedWithin="-1.00" meanHaltsPerVehicleWithin="-1.00" meanDurationWithin="-1.00" vehicleSumWithin="0" meanIntervalSpeedWithin="-1.00" meanIntervalHaltsPerVehicleWithin="-1.00" meanIntervalDurationWithin="-1.00" meanTimeLossWithin="-1.00"/>
   <interval begin="300.00" end="600.00" id="e14" meanTravelTime="0.69" meanOverlapTravelTime="1.05" meanSpeed="14.06" meanHaltsPerVehicle="0.00" meanTimeLoss="0.02" vehicleSum="22" meanSpeedWithin="4.67" meanHaltsPerVehicleWithin="0.80" meanDurationWithin="52.30" vehicleSumWithin="5" meanIntervalSpeedWithin="4.67" meanIntervalHaltsPerVehicleWithin="0.80" meanIntervalDurationWithin="52.30" meanTimeLossWithin="42.81"/>
   <interval begin="300.00" end="600.00" id="e15" meanTravelTime="0.69" meanOverlapTravelTime="1.07" meanSpeed="13.27" meanHaltsPerVehicle="0.00" meanTimeLoss="0.03" vehicleSum="14" meanSpeedWithin="-1.00" meanHaltsPerVehicleWithin="-1.00" meanDurationWithin="-1.00" vehicleSumWithin="0" meanIntervalSpeedWithin="-1.00" meanIntervalHaltsPerVehicleWithin="-1.00" meanIntervalDurationWithin="-1.00" meanTimeLossWithin="-1.00"/>
   <interval begin="300.00" end="600.00" id="e16" meanTravelTime="69.88" meanOverlapTravelTime="70.38" meanSpeed="2.12" meanHaltsPerVehicle="0.72" meanTimeLoss="61.94" vehicleSum="18" meanSpeedWithin="-1.00" meanHaltsPerVehicleWithin="-1.00" meanDurationWithin="-1.00" vehicleSumWithin="0" meanIntervalSpeedWithin="-1.00" meanIntervalHaltsPerVehicleWithin="-1.00" meanIntervalDurationWithin="-1.00" meanTimeLossWithin="-1.00"/>
   <interval begin="300.00" end="600.00" id="e17" meanTravelTime="0.44" meanOverlapTravelTime="0.80" meanSpeed="13.88" meanHaltsPerVehicle="0.00" meanTimeLoss="0.02" vehicleSum="27" meanSpeedWithin="-1.00" meanHaltsPerVehicleWithin="-1.00" meanDurationWithin="-1.00" vehicleSumWithin="0" meanIntervalSpeedWithin="-1.00" meanIntervalHaltsPerVehicleWithin="-1.00" meanIntervalDurationWithin="-1.00" meanTimeLossWithin="-1.00"/>