<?xml version="1.0" encoding="UTF-8"?>

<!-- generated on 2024-10-18 13:10:46 by Eclipse SUMO GUI Version 1.20.0
<configuration xmlns:xsi="http://www.w3.org/2001/XMLSchema-instance" xsi:noNamespaceSchemaLocation="http://sumo.dlr.de/xsd/sumoConfiguration.xsd">

    <input>
        <net-file value="./simulation/bordeaux/bordeaux.net.xml"/>
        <route-files value="./simulation/bordeaux/bordeaux.fast.xml"/>
        <additional-files value="./simulation/bordeaux/bordeaux.add.xml"/>
    </input>

    <output>
        <tripinfo-output value="./simulation/bordeaux/bordeaux.stats.xml"/>
    </output>

    <time>
        <step-length value="0.5"/>
    </time>

    <report>
        <no-warnings value="true"/>
    </report>

    <traci_server>
        <remote-port value="53181"/>
    </traci_server>

</configuration>
-->

<detector xmlns:xsi="http://www.w3.org/2001/XMLSchema-instance" xsi:noNamespaceSchemaLocation="http://sumo.dlr.de/xsd/det_e1_file.xsd">
    <interval begin="0.00" end="194.50" id="BUSEW" nVehContrib="1" flow="18.51" occupancy="0.45" speed="13.69" harmonicMeanSpeed="13.69" length="12.00" nVehEntered="1"/>
    <interval begin="0.00" end="194.50" id="BUSNS" nVehContrib="1" flow="18.51" occupancy="0.47" speed="13.11" harmonicMeanSpeed="13.11" length="12.00" nVehEntered="1"/>
    <interval begin="0.00" end="194.50" id="BUSSN" nVehContrib="1" flow="18.51" occupancy="0.68" speed="9.03" harmonicMeanSpeed="9.03" length="12.00" nVehEntered="1"/>
    <interval begin="0.00" end="194.50" id="BUSWE" nVehContrib="1" flow="18.51" occupancy="0.49" speed="12.68" harmonicMeanSpeed="12.68" length="12.00" nVehEntered="1"/>
   <interval begin="0.00" end="194.50" id="cars_e_in" meanTravelTime="0.76" meanOverlapTravelTime="1.18" meanSpeed="13.02" meanHaltsPerVehicle="0.00" meanTimeLoss="0.07" vehicleSum="16" meanSpeedWithin="-1.00" meanHaltsPerVehicleWithin="-1.00" meanDurationWithin="-1.00" vehicleSumWithin="0" meanIntervalSpeedWithin="-1.00" meanIntervalHaltsPerVehicleWithin="-1.00" meanIntervalDurationWithin="-1.00" meanTimeLossWithin="-1.00"/>
   <interval begin="0.00" end="194.50" id="cars_e_out" meanTravelTime="0.71" meanOverlapTravelTime="1.09" meanSpeed="13.41" meanHaltsPerVehicle="0.00" meanTimeLoss="0.03" vehicleSum="3" meanSpeedWithin="-1.00" meanHaltsPerVehicleWithin="-1.00" meanDurationWithin="-1.00" vehicleSumWithin="0" meanIntervalSpeedWithin="-1.00" meanIntervalHaltsPerVehicleWithin="-1.00" meanIntervalDurationWithin="-1.00" meanTimeLossWithin="-1.00"/>
   <interval begin="0.00" end="194.50" id="cars_n_in" meanTravelTime="0.62" meanOverlapTravelTime="1.01" meanSpeed="13.38" meanHaltsPerVehicle="0.00" meanTimeLoss="0.03" vehicleSum="35" meanSpeedWithin="-1.00" meanHaltsPerVehicleWithin="-1.00" meanDurationWithin="-1.00" vehicleSumWithin="0" meanIntervalSpeedWithin="-1.00" meanIntervalHaltsPerVehicleWithin="-1.00" meanIntervalDurationWithin="-1.00" meanTimeLossWithin="-1.00"/>
   <interval begin="0.00" end="194.50" id="cars_n_out" meanTravelTime="0.65" meanOverlapTravelTime="1.04" meanSpeed="12.94" meanHaltsPerVehicle="0.00" meanTimeLoss="0.03" vehicleSum="2" meanSpeedWithin="-1.00" meanHaltsPerVehicleWithin="-1.00" meanDurationWithin="-1.00" vehicleSumWithin="0" meanIntervalSpeedWithin="-1.00" meanIntervalHaltsPerVehicleWithin="-1.00" meanIntervalDurationWithin="-1.00" meanTimeLossWithin="-1.00"/>
   <interval begin="0.00" end="194.50" id="cars_s_in" meanTravelTime="0.65" meanOverlapTravelTime="1.05" meanSpeed="13.54" meanHaltsPerVehicle="0.00" meanTimeLoss="0.04" vehicleSum="20" meanSpeedWithin="14.09" meanHaltsPerVehicleWithin="0.00" meanDurationWithin="1.04" vehicleSumWithin="1" meanIntervalSpeedWithin="14.09" meanIntervalHaltsPerVehicleWithin="0.00" meanIntervalDurationWithin="1.04" meanTimeLossWithin="0.00"/>
   <interval begin="0.00" end="194.50" id="cars_s_out" meanTravelTime="0.58" meanOverlapTravelTime="0.92" meanSpeed="14.76" meanHaltsPerVehicle="0.00" meanTimeLoss="0.02" vehicleSum="5" meanSpeedWithin="-1.00" meanHaltsPerVehicleWithin="-1.00" meanDurationWithin="-1.00" vehicleSumWithin="0" meanIntervalSpeedWithin="-1.00" meanIntervalHaltsPerVehicleWithin="-1.00" meanIntervalDurationWithin="-1.00" meanTimeLossWithin="-1.00"/>
   <interval begin="0.00" end="194.50" id="cars_w_in" meanTravelTime="0.71" meanOverlapTravelTime="1.12" meanSpeed="13.66" meanHaltsPerVehicle="0.00" meanTimeLoss="0.03" vehicleSum="13" meanSpeedWithin="-1.00" meanHaltsPerVehicleWithin="-1.00" meanDurationWithin="-1.00" vehicleSumWithin="0" meanIntervalSpeedWithin="-1.00" meanIntervalHaltsPerVehicleWithin="-1.00" meanIntervalDurationWithin="-1.00" meanTimeLossWithin="-1.00"/>
   <interval begin="0.00" end="194.50" id="cars_w_out" meanTravelTime="0.67" meanOverlapTravelTime="1.03" meanSpeed="13.62" meanHaltsPerVehicle="0.00" meanTimeLoss="0.01" vehicleSum="3" meanSpeedWithin="-1.00" meanHaltsPerVehicleWithin="-1.00" meanDurationWithin="-1.00" vehicleSumWithin="0" meanIntervalSpeedWithin="-1.00" meanIntervalHaltsPerVehicleWithin="-1.00" meanIntervalDurationWithin="-1.00" meanTimeLossWithin="-1.00"/>
   <interval begin="0.00" end="194.50" id="cbikes_e_in" meanTravelTime="32.44" meanOverlapTravelTime="32.65" meanSpeed="5.50" meanHaltsPerVehicle="0.00" meanTimeLoss="1.34" vehicleSum="8" meanSpeedWithin="5.83" meanHaltsPerVehicleWithin="0.00" meanDurationWithin="30.96" vehicleSumWithin="1" meanIntervalSpeedWithin="5.83" meanIntervalHaltsPerVehicleWithin="0.00" meanIntervalDurationWithin="30.96" meanTimeLossWithin="1.03"/>
   <interval begin="0.00" end="194.50" id="cbikes_e_out" meanTravelTime="30.55" meanOverlapTravelTime="30.76" meanSpeed="5.56" meanHaltsPerVehicle="0.00" meanTimeLoss="1.72" vehicleSum="6" meanSpeedWithin="5.50" meanHaltsPerVehicleWithin="0.00" meanDurationWithin="18.46" vehicleSumWithin="2" meanIntervalSpeedWithin="5.50" meanIntervalHaltsPerVehicleWithin="0.00" meanIntervalDurationWithin="18.46" meanTimeLossWithin="1.65"/>
   <interval begin="0.00" end="194.50" id="cbikes_n_in" meanTravelTime="29.56" meanOverlapTravelTime="29.79" meanSpeed="4.98" meanHaltsPerVehicle="0.00" meanTimeLoss="1.85" vehicleSum="13" meanSpeedWithin="4.92" meanHaltsPerVehicleWithin="0.00" meanDurationWithin="17.38" vehicleSumWithin="1" meanIntervalSpeedWithin="4.92" meanIntervalHaltsPerVehicleWithin="0.00" meanIntervalDurationWithin="17.38" meanTimeLossWithin="1.35"/>
   <interval begin="0.00" end="194.50" id="cbikes_n_out" meanTravelTime="34.06" meanOverlapTravelTime="34.28" meanSpeed="5.34" meanHaltsPerVehicle="0.00" meanTimeLoss="1.59" vehicleSum="7" meanSpeedWithin="5.33" meanHaltsPerVehicleWithin="0.00" meanDurationWithin="15.11" vehicleSumWithin="2" meanIntervalSpeedWithin="5.33" meanIntervalHaltsPerVehicleWithin="0.00" meanIntervalDurationWithin="15.11" meanTimeLossWithin="0.34"/>
   <interval begin="0.00" end="194.50" id="cbikes_s_in" meanTravelTime="27.88" meanOverlapTravelTime="28.10" meanSpeed="5.35" meanHaltsPerVehicle="0.00" meanTimeLoss="1.02" vehicleSum="8" meanSpeedWithin="5.36" meanHaltsPerVehicleWithin="0.00" meanDurationWithin="23.66" vehicleSumWithin="1" meanIntervalSpeedWithin="5.36" meanIntervalHaltsPerVehicleWithin="0.00" meanIntervalDurationWithin="23.66" meanTimeLossWithin="0.83"/>
   <interval begin="0.00" end="194.50" id="cbikes_s_out" meanTravelTime="28.20" meanOverlapTravelTime="28.43" meanSpeed="5.30" meanHaltsPerVehicle="0.00" meanTimeLoss="0.89" vehicleSum="7" meanSpeedWithin="5.71" meanHaltsPerVehicleWithin="0.00" meanDurationWithin="16.23" vehicleSumWithin="1" meanIntervalSpeedWithin="5.71" meanIntervalHaltsPerVehicleWithin="0.00" meanIntervalDurationWithin="16.23" meanTimeLossWithin="0.42"/>
   <interval begin="0.00" end="194.50" id="cbikes_w_in" meanTravelTime="28.96" meanOverlapTravelTime="29.18" meanSpeed="5.11" meanHaltsPerVehicle="0.00" meanTimeLoss="2.82" vehicleSum="10" meanSpeedWithin="5.34" meanHaltsPerVehicleWithin="0.00" meanDurationWithin="26.66" vehicleSumWithin="1" meanIntervalSpeedWithin="5.34" meanIntervalHaltsPerVehicleWithin="0.00" meanIntervalDurationWithin="26.66" meanTimeLossWithin="2.74"/>
   <interval begin="0.00" end="194.50" id="cbikes_w_out" meanTravelTime="1.80" meanOverlapTravelTime="2.04" meanSpeed="5.11" meanHaltsPerVehicle="0.00" meanTimeLoss="0.16" vehicleSum="7" meanSpeedWithin="-1.00" meanHaltsPerVehicleWithin="-1.00" meanDurationWithin="-1.00" vehicleSumWithin="0" meanIntervalSpeedWithin="-1.00" meanIntervalHaltsPerVehicleWithin="-1.00" meanIntervalDurationWithin="-1.00" meanTimeLossWithin="-1.00"/>
   <interval begin="0.00" end="194.50" id="e0_10" meanTravelTime="0.53" meanOverlapTravelTime="1.07" meanSpeed="12.94" meanHaltsPerVehicle="0.00" meanTimeLoss="0.30" vehicleSum="10" meanSpeedWithin="0.16" meanHaltsPerVehicleWithin="1.00" meanDurationWithin="92.13" vehicleSumWithin="3" meanIntervalSpeedWithin="0.16" meanIntervalHaltsPerVehicleWithin="1.00" meanIntervalDurationWithin="92.13" meanTimeLossWithin="90.49"/>
   <interval begin="0.00" end="194.50" id="e0_11" meanTravelTime="-1.00" meanOverlapTravelTime="-1.00" meanSpeed="-1.00" meanHaltsPerVehicle="-1.00" meanTimeLoss="-1.00" vehicleSum="0" meanSpeedWithin="0.11" meanHaltsPerVehicleWithin="1.00" meanDurationWithin="64.09" vehicleSumWithin="1" meanIntervalSpeedWithin="0.11" meanIntervalHaltsPerVehicleWithin="1.00" meanIntervalDurationWithin="64.09" meanTimeLossWithin="63.19"/>
   <interval begin="0.00" end="194.50" id="e10_06" meanTravelTime="-1.00" meanOverlapTravelTime="-1.00" meanSpeed="-1.00" meanHaltsPerVehicle="-1.00" meanTimeLoss="-1.00" vehicleSum="0" meanSpeedWithin="0.07" meanHaltsPerVehicleWithin="1.00" meanDurationWithin="163.85" vehicleSumWithin="1" meanIntervalSpeedWithin="0.07" meanIntervalHaltsPerVehicleWithin="1.00" meanIntervalDurationWithin="163.85" meanTimeLossWithin="162.62"/>
   <interval begin="0.00" end="194.50" id="e12" meanTravelTime="1.24" meanOverlapTravelTime="1.62" meanSpeed="13.28" meanHaltsPerVehicle="0.00" meanTimeLoss="0.03" vehicleSum="3" meanSpeedWithin="-1.00" meanHaltsPerVehicleWithin="-1.00" meanDurationWithin="-1.00" vehicleSumWithin="0" meanIntervalSpeedWithin="-1.00" meanIntervalHaltsPerVehicleWithin="-1.00" meanIntervalDurationWithin="-1.00" meanTimeLossWithin="-1.00"/>
   <interval begin="0.00" end="194.50" id="e14" meanTravelTime="0.70" meanOverlapTravelTime="1.13" meanSpeed="13.79" meanHaltsPerVehicle="0.00" meanTimeLoss="0.03" vehicleSum="8" meanSpeedWithin="1.97" meanHaltsPerVehicleWithin="1.00" meanDurationWithin="94.74" vehicleSumWithin="5" meanIntervalSpeedWithin="1.97" meanIntervalHaltsPerVehicleWithin="1.00" meanIntervalDurationWithin="94.74" meanTimeLossWithin="85.07"/>
   <interval begin="0.00" end="194.50" id="e15" meanTravelTime="0.68" meanOverlapTravelTime="1.05" meanSpeed="13.45" meanHaltsPerVehicle="0.00" meanTimeLoss="0.03" vehicleSum="5" meanSpeedWithin="-1.00" meanHaltsPerVehicleWithin="-1.00" meanDurationWithin="-1.00" vehicleSumWithin="0" meanIntervalSpeedWithin="-1.00" meanIntervalHaltsPerVehicleWithin="-1.00" meanIntervalDurationWithin="-1.00" meanTimeLossWithin="-1.00"/>
   <interval begin="0.00" end="194.50" id="e16" meanTravelTime="14.33" meanOverlapTravelTime="14.72" meanSpeed="4.54" meanHaltsPerVehicle="0.29" meanTimeLoss="6.48" vehicleSum="7" meanSpeedWithin="2.17" meanHaltsPerVehicleWithin="1.00" meanDurationWithin="22.68" vehicleSumWithin="1" meanIntervalSpeedWithin="2.17" meanIntervalHaltsPerVehicleWithin="1.00" meanIntervalDurationWithin="22.68" meanTimeLossWithin="13.85"/>
   <interval begin="0.00" end="194.50" id="e17" meanTravelTime="0.47" meanOverlapTravelTime="0.89" meanSpeed="13.02" meanHaltsPerVehicle="0.00" meanTimeLoss="0.05" vehicleSum="13" meanSpeedWithin="-1.00" meanHaltsPerVehicleWithin="-1.00" meanDurationWithin="-1.00" vehicleSumWithin="0" meanIntervalSpeedWithin="-1.00" meanIntervalHaltsPerVehicleWithin="-1.00" meanIntervalDurationWithin="-1.00" meanTimeLossWithin="-1.00"/>
   <interval begin="0.00" end="194.50" id="e18" meanTravelTime="1.09" meanOverlapTravelTime="1.30" meanSpeed="5.59" meanHaltsPerVehicle="0.00" meanTimeLoss="0.06" vehicleSum="10" meanSpeedWithin="-1.00" meanHaltsPerVehicleWithin="-1.00" meanDurationWithin="-1.00" vehicleSumWithin="0" meanIntervalSpeedWithin="-1.00" meanIntervalHaltsPerVehicleWithin="-1.00" meanIntervalDurationWithin="-1.00" meanTimeLossWithin="-1.00"/>
   <interval begin="0.00" end="194.50" id="e20" meanTravelTime="0.69" meanOverlapTravelTime="0.92" meanSpeed="5.21" meanHaltsPerVehicle="0.00" meanTimeLoss="0.04" vehicleSum="12" meanSpeedWithin="-1.00" meanHaltsPerVehicleWithin="-1.00" meanDurationWithin="-1.00" vehicleSumWithin="0" meanIntervalSpeedWithin="-1.00" meanIntervalHaltsPerVehicleWithin="-1.00" meanIntervalDurationWithin="-1.00" meanTimeLossWithin="-1.00"/>
   <interval begin="0.00" end="194.50" id="e22" meanTravelTime="0.74" meanOverlapTravelTime="0.98" meanSpeed="5.42" meanHaltsPerVehicle="0.00" meanTimeLoss="0.05" vehicleSum="8" meanSpeedWithin="-1.00" meanHaltsPerVehicleWithin="-1.00" meanDurationWithin="-1.00" vehicleSumWithin="0" meanIntervalSpeedWithin="-1.00" meanIntervalHaltsPerVehicleWithin="-1.00" meanIntervalDurationWithin="-1.00" meanTimeLossWithin="-1.00"/>
   <interval begin="0.00" end="194.50" id="e24" meanTravelTime="1.16" meanOverlapTravelTime="1.59" meanSpeed="13.62" meanHaltsPerVehicle="0.00" meanTimeLoss="0.04" vehicleSum="9" meanSpeedWithin="-1.00" meanHaltsPerVehicleWithin="-1.00" meanDurationWithin="-1.00" vehicleSumWithin="0" meanIntervalSpeedWithin="-1.00" meanIntervalHaltsPerVehicleWithin="-1.00" meanIntervalDurationWithin="-1.00" meanTimeLossWithin="-1.00"/>
   <interval begin="0.00" end="194.50" id="e2_04" meanTravelTime="0.32" meanOverlapTravelTime="0.75" meanSpeed="12.45" meanHaltsPerVehicle="0.00" meanTimeLoss="0.01" vehicleSum="3" meanSpeedWithin="0.08" meanHaltsPerVehicleWithin="1.00" meanDurationWithin="142.02" vehicleSumWithin="1" meanIntervalSpeedWithin="0.08" meanIntervalHaltsPerVehicleWithin="1.00" meanIntervalDurationWithin="142.02" meanTimeLossWithin="141.05"/>
   <interval begin="0.00" end="194.50" id="e2_05" meanTravelTime="-1.00" meanOverlapTravelTime="-1.00" meanSpeed="-1.00" meanHaltsPerVehicle="-1.00" meanTimeLoss="-1.00" vehicleSum="0" meanSpeedWithin="0.09" meanHaltsPerVehicleWithin="1.00" meanDurationWithin="125.18" vehicleSumWithin="1" meanIntervalSpeedWithin="0.09" meanIntervalHaltsPerVehicleWithin="1.00" meanIntervalDurationWithin="125.18" meanTimeLossWithin="124.09"/>
   <interval begin="0.00" end="194.50" id="e4_07" meanTravelTime="-1.00" meanOverlapTravelTime="-1.00" meanSpeed="-1.00" meanHaltsPerVehicle="-1.00" meanTimeLoss="-1.00" vehicleSum="0" meanSpeedWithin="0.20" meanHaltsPerVehicleWithin="1.00" meanDurationWithin="122.23" vehicleSumWithin="6" meanIntervalSpeedWithin="0.20" meanIntervalHaltsPerVehicleWithin="1.00" meanIntervalDurationWithin="122.23" meanTimeLossWithin="120.26"/>
   <interval begin="0.00" end="194.50" id="e4_08" meanTravelTime="-1.00" meanOverlapTravelTime="-1.00" meanSpeed="-1.00" meanHaltsPerVehicle="-1.00" meanTimeLoss="-1.00" vehicleSum="0" meanSpeedWithin="0.36" meanHaltsPerVehicleWithin="1.00" meanDurationWithin="77.84" vehicleSumWithin="7" meanIntervalSpeedWithin="0.36" meanIntervalHaltsPerVehicleWithin="1.00" meanIntervalDurationWithin="77.84" meanTimeLossWithin="75.96"/>
   <interval begin="0.00" end="194.50" id="e4_09" meanTravelTime="-1.00" meanOverlapTravelTime="-1.00" meanSpeed="-1.00" meanHaltsPerVehicle="-1.00" meanTimeLoss="-1.00" vehicleSum="0" meanSpeedWithin="0.80" meanHaltsPerVehicleWithin="1.00" meanDurationWithin="44.69" vehicleSumWithin="2" meanIntervalSpeedWithin="0.80" meanIntervalHaltsPerVehicleWithin="1.00" meanIntervalDurationWithin="44.69" meanTimeLossWithin="42.48"/>
   <interval begin="0.00" end="194.50" id="e5" meanTravelTime="1.30" meanOverlapTravelTime="1.81" meanSpeed="12.91" meanHaltsPerVehicle="0.00" meanTimeLoss="0.29" vehicleSum="16" meanSpeedWithin="0.98" meanHaltsPerVehicleWithin="1.00" meanDurationWithin="98.78" vehicleSumWithin="4" meanIntervalSpeedWithin="0.98" meanIntervalHaltsPerVehicleWithin="1.00" meanIntervalDurationWithin="98.78" meanTimeLossWithin="93.93"/>
   <interval begin="0.00" end="194.50" id="e6_01" meanTravelTime="1.30" meanOverlapTravelTime="1.99" meanSpeed="11.43" meanHaltsPerVehicle="0.00" meanTimeLoss="0.51" vehicleSum="1" meanSpeedWithin="0.25" meanHaltsPerVehicleWithin="1.00" meanDurationWithin="68.70" vehicleSumWithin="2" meanIntervalSpeedWithin="0.25" meanIntervalHaltsPerVehicleWithin="1.00" meanIntervalDurationWithin="68.70" meanTimeLossWithin="67.17"/>
   <interval begin="0.00" end="194.50" id="e6_02" meanTravelTime="1.34" meanOverlapTravelTime="2.06" meanSpeed="12.16" meanHaltsPerVehicle="0.00" meanTimeLoss="0.90" vehicleSum="1" meanSpeedWithin="0.09" meanHaltsPerVehicleWithin="1.00" meanDurationWithin="96.69" vehicleSumWithin="5" meanIntervalSpeedWithin="0.09" meanIntervalHaltsPerVehicleWithin="1.00" meanIntervalDurationWithin="96.69" meanTimeLossWithin="95.35"/>
   <interval begin="0.00" end="194.50" id="e6_03" meanTravelTime="1.54" meanOverlapTravelTime="2.26" meanSpeed="10.90" meanHaltsPerVehicle="0.00" meanTimeLoss="0.54" vehicleSum="1" meanSpeedWithin="0.13" meanHaltsPerVehicleWithin="1.00" meanDurationWithin="93.49" vehicleSumWithin="3" meanIntervalSpeedWithin="0.13" meanIntervalHaltsPerVehicleWithin="1.00" meanIntervalDurationWithin="93.49" meanTimeLossWithin="92.11"/>
   <interval begin="0.00" end="194.50" id="e7" meanTravelTime="1.19" meanOverlapTravelTime="1.58" meanSpeed="13.33" meanHaltsPerVehicle="0.00" meanTimeLoss="0.05" vehicleSum="4" meanSpeedWithin="-1.00" meanHaltsPerVehicleWithin="-1.00" meanDurationWithin="-1.00" vehicleSumWithin="0" meanIntervalSpeedWithin="-1.00" meanIntervalHaltsPerVehicleWithin="-1.00" meanIntervalDurationWithin="-1.00" meanTimeLossWithin="-1.00"/>
   <interval begin="0.00" end="194.50" id="e8_12" meanTravelTime="0.50" meanOverlapTravelTime="1.05" meanSpeed="11.23" meanHaltsPerVehicle="0.00" meanTimeLoss="0.31" vehicleSum="4" meanSpeedWithin="0.18" meanHaltsPerVehicleWithin="1.50" meanDurationWithin="55.05" vehicleSumWithin="2" meanIntervalSpeedWithin="0.18" meanIntervalHaltsPerVehicleWithin="1.50" meanIntervalDurationWithin="55.05" meanTimeLossWithin="53.93"/>
   <interval begin="0.00" end="194.50" id="mac0" meanTravelTime="0.46" meanOverlapTravelTime="0.84" meanSpeed="12.98" meanHaltsPerVehicle="0.00" meanTimeLoss="0.01" vehicleSum="3" meanSpeedWithin="2.71" meanHaltsPerVehicleWithin="0.92" meanDurationWithin="91.46" vehicleSumWithin="13" meanIntervalSpeedWithin="2.71" meanIntervalHaltsPerVehicleWithin="0.92" meanIntervalDurationWithin="91.46" meanTimeLossWithin="82.73"/>
</detector>
